92432
  -OEChem-12262517252D

143147  0     1  0  0  0  0  0999 V2000
    7.3375    3.3569    0.0000 O   0  0  0  0  0  0  0  0  0  0  0  0
   10.5182    5.2911    0.0000 O   0  0  0  0  0  0  0  0  0  0  0  0
    6.5801   -0.2879    0.0000 O   0  0  0  0  0  0  0  0  0  0  0  0
    8.7269   -3.3292    0.0000 O   0  0  0  0  0  0  0  0  0  0  0  0
   12.4149   -3.8361    0.0000 O   0  0  0  0  0  0  0  0  0  0  0  0
   12.4206    5.7515    0.0000 O   0  0  0  0  0  0  0  0  0  0  0  0
   15.3025   -1.4868    0.0000 O   0  0  0  0  0  0  0  0  0  0  0  0
   15.0618   -2.4292    0.0000 O   0  0  0  0  0  0  0  0  0  0  0  0
   16.1403   -5.8697    0.0000 O   0  0  0  0  0  0  0  0  0  0  0  0
    8.8370    3.5110    0.0000 N   0  0  0  0  0  0  0  0  0  0  0  0
   11.6544    4.3004    0.0000 N   0  0  0  0  0  0  0  0  0  0  0  0
    7.4910    0.9132    0.0000 N   0  0  0  0  0  0  0  0  0  0  0  0
    8.4708   -1.8437    0.0000 N   0  0  0  0  0  0  0  0  0  0  0  0
   11.1544   -3.0093    0.0000 N   0  0  0  0  0  0  0  0  0  0  0  0
   13.5819   -3.3292    0.0000 N   0  0  0  0  0  0  0  0  0  0  0  0
    6.7228    4.7384    0.0000 N   0  0  0  0  0  0  0  0  0  0  0  0
   14.7495   -0.0844    0.0000 N   0  0  0  0  0  0  0  0  0  0  0  0
   16.1009   -4.1381    0.0000 N   0  0  0  0  0  0  0  0  0  0  0  0
   14.0092    5.0614    0.0000 N   0  0  0  0  0  0  0  0  0  0  0  0
   10.4252   -5.5370    0.0000 N   0  0  0  0  0  0  0  0  0  0  0  0
    4.2876    1.2649    0.0000 N   0  0  0  0  0  0  0  0  0  0  0  0
   12.0261   -5.3021    0.0000 N   0  0  0  0  0  0  0  0  0  0  0  0
    2.5842    0.9512    0.0000 N   0  0  0  0  0  0  0  0  0  0  0  0
    3.1642    2.5833    0.0000 N   0  0  0  0  0  0  0  0  0  0  0  0
    9.6915    4.0306    0.0000 C   0  0  1  0  0  0  0  0  0  0  0  0
    7.6944    1.8923    0.0000 C   0  0  1  0  0  0  0  0  0  0  0  0
    9.2931    4.9478    0.0000 C   0  0  0  0  0  0  0  0  0  0  0  0
   12.6173    4.0306    0.0000 C   0  0  1  0  0  0  0  0  0  0  0  0
   13.4717    3.5110    0.0000 C   0  0  0  0  0  0  0  0  0  0  0  0
    6.7522    2.2272    0.0000 C   0  0  0  0  0  0  0  0  0  0  0  0
   14.1543    2.7802    0.0000 C   0  0  0  0  0  0  0  0  0  0  0  0
    7.8941   -1.0267    0.0000 C   0  0  1  0  0  0  0  0  0  0  0  0
    8.2995    5.0614    0.0000 C   0  0  0  0  0  0  0  0  0  0  0  0
    8.1545    2.7802    0.0000 C   0  0  0  0  0  0  0  0  0  0  0  0
   10.6544    4.3004    0.0000 C   0  0  0  0  0  0  0  0  0  0  0  0
   14.6143    1.8923    0.0000 C   0  0  0  0  0  0  0  0  0  0  0  0
   10.1637   -2.8732    0.0000 C   0  0  2  0  0  0  0  0  0  0  0  0
   13.0623   -2.4748    0.0000 C   0  0  1  0  0  0  0  0  0  0  0  0
    5.9910    1.5786    0.0000 C   0  0  0  0  0  0  0  0  0  0  0  0
    7.5592   -0.0844    0.0000 C   0  0  0  0  0  0  0  0  0  0  0  0
    7.8111    5.9272    0.0000 C   0  0  0  0  0  0  0  0  0  0  0  0
    7.0062   -1.4868    0.0000 C   0  0  0  0  0  0  0  0  0  0  0  0
   14.8178    0.9132    0.0000 C   0  0  0  0  0  0  0  0  0  0  0  0
   13.8380   -1.8437    0.0000 C   0  0  0  0  0  0  0  0  0  0  0  0
    9.2465   -2.4748    0.0000 C   0  0  0  0  0  0  0  0  0  0  0  0
    9.8939   -3.8361    0.0000 C   0  0  0  0  0  0  0  0  0  0  0  0
    7.6283    4.3282    0.0000 C   0  0  0  0  0  0  0  0  0  0  0  0
    6.8314    5.7265    0.0000 C   0  0  0  0  0  0  0  0  0  0  0  0
   15.1012   -4.1608    0.0000 C   0  0  1  0  0  0  0  0  0  0  0  0
   12.1451   -2.8732    0.0000 C   0  0  0  0  0  0  0  0  0  0  0  0
   13.0157    4.9478    0.0000 C   0  0  0  0  0  0  0  0  0  0  0  0
   14.6210   -5.0380    0.0000 C   0  0  0  0  0  0  0  0  0  0  0  0
    5.0488    1.9135    0.0000 C   0  0  0  0  0  0  0  0  0  0  0  0
   14.4147   -1.0267    0.0000 C   0  0  0  0  0  0  0  0  0  0  0  0
   14.5816   -3.3064    0.0000 C   0  0  0  0  0  0  0  0  0  0  0  0
    6.9607   -2.4857    0.0000 C   0  0  0  0  0  0  0  0  0  0  0  0
   15.1406   -5.8924    0.0000 C   0  0  0  0  0  0  0  0  0  0  0  0
    8.1271    6.8760    0.0000 C   0  0  0  0  0  0  0  0  0  0  0  0
   10.5929   -4.5512    0.0000 C   0  0  0  0  0  0  0  0  0  0  0  0
    6.1678    6.4746    0.0000 C   0  0  0  0  0  0  0  0  0  0  0  0
   14.6604   -6.7696    0.0000 C   0  0  0  0  0  0  0  0  0  0  0  0
    7.4635    7.6240    0.0000 C   0  0  0  0  0  0  0  0  0  0  0  0
    6.4838    7.4233    0.0000 C   0  0  0  0  0  0  0  0  0  0  0  0
    6.0728   -2.9458    0.0000 C   0  0  0  0  0  0  0  0  0  0  0  0
    7.8031   -3.0246    0.0000 C   0  0  0  0  0  0  0  0  0  0  0  0
   11.5823   -4.4060    0.0000 C   0  0  0  0  0  0  0  0  0  0  0  0
   15.1800   -7.6240    0.0000 C   0  0  0  0  0  0  0  0  0  0  0  0
   16.6205   -4.9925    0.0000 C   0  0  0  0  0  0  0  0  0  0  0  0
    6.0273   -3.9448    0.0000 C   0  0  0  0  0  0  0  0  0  0  0  0
    7.7575   -4.0236    0.0000 C   0  0  0  0  0  0  0  0  0  0  0  0
   11.3110   -6.0011    0.0000 C   0  0  0  0  0  0  0  0  0  0  0  0
    6.8697   -4.4837    0.0000 C   0  0  0  0  0  0  0  0  0  0  0  0
    3.3454    1.5998    0.0000 C   0  0  0  0  0  0  0  0  0  0  0  0
   17.6202   -4.9697    0.0000 C   0  0  0  0  0  0  0  0  0  0  0  0
    9.1005    4.2182    0.0000 H   0  0  0  0  0  0  0  0  0  0  0  0
    7.1540    1.5885    0.0000 H   0  0  0  0  0  0  0  0  0  0  0  0
    9.8960    5.0923    0.0000 H   0  0  0  0  0  0  0  0  0  0  0  0
    9.2554    5.5667    0.0000 H   0  0  0  0  0  0  0  0  0  0  0  0
   12.3510    4.5905    0.0000 H   0  0  0  0  0  0  0  0  0  0  0  0
   14.0605    3.7053    0.0000 H   0  0  0  0  0  0  0  0  0  0  0  0
   13.0804    3.0301    0.0000 H   0  0  0  0  0  0  0  0  0  0  0  0
    7.0581    2.7665    0.0000 H   0  0  0  0  0  0  0  0  0  0  0  0
    6.2742    2.6221    0.0000 H   0  0  0  0  0  0  0  0  0  0  0  0
   14.7736    2.8084    0.0000 H   0  0  0  0  0  0  0  0  0  0  0  0
   13.6477    2.4227    0.0000 H   0  0  0  0  0  0  0  0  0  0  0  0
    8.4458    3.9920    0.0000 H   0  0  0  0  0  0  0  0  0  0  0  0
    7.7473   -1.6291    0.0000 H   0  0  0  0  0  0  0  0  0  0  0  0
   15.2183    1.7524    0.0000 H   0  0  0  0  0  0  0  0  0  0  0  0
   14.0301    1.6847    0.0000 H   0  0  0  0  0  0  0  0  0  0  0  0
   11.7388    4.9146    0.0000 H   0  0  0  0  0  0  0  0  0  0  0  0
    6.8724    0.9555    0.0000 H   0  0  0  0  0  0  0  0  0  0  0  0
   10.5037   -3.3916    0.0000 H   0  0  0  0  0  0  0  0  0  0  0  0
   13.6733   -2.5801    0.0000 H   0  0  0  0  0  0  0  0  0  0  0  0
    5.6851    1.0393    0.0000 H   0  0  0  0  0  0  0  0  0  0  0  0
    6.4690    1.1837    0.0000 H   0  0  0  0  0  0  0  0  0  0  0  0
    6.8209   -0.8951    0.0000 H   0  0  0  0  0  0  0  0  0  0  0  0
    6.3914   -1.5665    0.0000 H   0  0  0  0  0  0  0  0  0  0  0  0
   15.3616    0.6155    0.0000 H   0  0  0  0  0  0  0  0  0  0  0  0
   14.1992    0.8709    0.0000 H   0  0  0  0  0  0  0  0  0  0  0  0
    8.0177   -2.2669    0.0000 H   0  0  0  0  0  0  0  0  0  0  0  0
   13.9916   -2.4443    0.0000 H   0  0  0  0  0  0  0  0  0  0  0  0
   13.3849   -1.4205    0.0000 H   0  0  0  0  0  0  0  0  0  0  0  0
    9.3350   -3.5677    0.0000 H   0  0  0  0  0  0  0  0  0  0  0  0
    9.5325   -4.3399    0.0000 H   0  0  0  0  0  0  0  0  0  0  0  0
    7.7527    3.7208    0.0000 H   0  0  0  0  0  0  0  0  0  0  0  0
   15.4233   -4.6906    0.0000 H   0  0  0  0  0  0  0  0  0  0  0  0
   11.1544   -3.6293    0.0000 H   0  0  0  0  0  0  0  0  0  0  0  0
   14.1371   -4.6504    0.0000 H   0  0  0  0  0  0  0  0  0  0  0  0
   14.1553   -5.4473    0.0000 H   0  0  0  0  0  0  0  0  0  0  0  0
   13.2842   -3.8730    0.0000 H   0  0  0  0  0  0  0  0  0  0  0  0
    6.1841    4.4314    0.0000 H   0  0  0  0  0  0  0  0  0  0  0  0
    5.3547    2.4528    0.0000 H   0  0  0  0  0  0  0  0  0  0  0  0
    4.5708    2.3084    0.0000 H   0  0  0  0  0  0  0  0  0  0  0  0
   15.3566   -0.2106    0.0000 H   0  0  0  0  0  0  0  0  0  0  0  0
   15.6245   -6.2801    0.0000 H   0  0  0  0  0  0  0  0  0  0  0  0
   15.6064   -5.4832    0.0000 H   0  0  0  0  0  0  0  0  0  0  0  0
    8.7345    7.0004    0.0000 H   0  0  0  0  0  0  0  0  0  0  0  0
    5.5604    6.3502    0.0000 H   0  0  0  0  0  0  0  0  0  0  0  0
   14.1766   -6.3820    0.0000 H   0  0  0  0  0  0  0  0  0  0  0  0
   14.1947   -7.1789    0.0000 H   0  0  0  0  0  0  0  0  0  0  0  0
   16.3986   -3.5942    0.0000 H   0  0  0  0  0  0  0  0  0  0  0  0
    7.6594    8.2123    0.0000 H   0  0  0  0  0  0  0  0  0  0  0  0
    6.0724    7.8871    0.0000 H   0  0  0  0  0  0  0  0  0  0  0  0
    5.5505   -2.6117    0.0000 H   0  0  0  0  0  0  0  0  0  0  0  0
    8.3535   -2.7394    0.0000 H   0  0  0  0  0  0  0  0  0  0  0  0
   14.2562    5.6301    0.0000 H   0  0  0  0  0  0  0  0  0  0  0  0
   14.3782    4.5632    0.0000 H   0  0  0  0  0  0  0  0  0  0  0  0
    9.8697   -5.8122    0.0000 H   0  0  0  0  0  0  0  0  0  0  0  0
   11.8701   -3.8568    0.0000 H   0  0  0  0  0  0  0  0  0  0  0  0
   14.6503   -7.9462    0.0000 H   0  0  0  0  0  0  0  0  0  0  0  0
   15.5022   -8.1538    0.0000 H   0  0  0  0  0  0  0  0  0  0  0  0
   15.7098   -7.3019    0.0000 H   0  0  0  0  0  0  0  0  0  0  0  0
    5.4768   -4.2300    0.0000 H   0  0  0  0  0  0  0  0  0  0  0  0
    8.2798   -4.3577    0.0000 H   0  0  0  0  0  0  0  0  0  0  0  0
   11.4010   -6.6146    0.0000 H   0  0  0  0  0  0  0  0  0  0  0  0
    6.8414   -5.1030    0.0000 H   0  0  0  0  0  0  0  0  0  0  0  0
   17.6344   -5.5896    0.0000 H   0  0  0  0  0  0  0  0  0  0  0  0
   18.2401   -4.9556    0.0000 H   0  0  0  0  0  0  0  0  0  0  0  0
   17.6061   -4.3499    0.0000 H   0  0  0  0  0  0  0  0  0  0  0  0
    2.0000    1.1588    0.0000 H   0  0  0  0  0  0  0  0  0  0  0  0
    2.6965    0.3415    0.0000 H   0  0  0  0  0  0  0  0  0  0  0  0
    2.5800    2.7909    0.0000 H   0  0  0  0  0  0  0  0  0  0  0  0
    3.6361    2.9854    0.0000 H   0  0  0  0  0  0  0  0  0  0  0  0
  1 34  2  0  0  0  0
  2 35  2  0  0  0  0
  3 40  2  0  0  0  0
  4 45  2  0  0  0  0
  5 50  2  0  0  0  0
  6 51  2  0  0  0  0
  7 54  2  0  0  0  0
  8 55  2  0  0  0  0
  9 68  2  0  0  0  0
 10 25  1  0  0  0  0
 10 34  1  0  0  0  0
 10 86  1  0  0  0  0
 11 28  1  0  0  0  0
 11 35  1  0  0  0  0
 11 90  1  0  0  0  0
 12 26  1  0  0  0  0
 12 40  1  0  0  0  0
 12 91  1  0  0  0  0
 13 32  1  0  0  0  0
 13 45  1  0  0  0  0
 13100  1  0  0  0  0
 14 37  1  0  0  0  0
 14 50  1  0  0  0  0
 14107  1  0  0  0  0
 38 15  1  6  0  0  0
 15 55  1  0  0  0  0
 15110  1  0  0  0  0
 16 47  1  0  0  0  0
 16 48  1  0  0  0  0
 16111  1  0  0  0  0
 17 43  1  0  0  0  0
 17 54  1  0  0  0  0
 17114  1  0  0  0  0
 49 18  1  1  0  0  0
 18 68  1  0  0  0  0
 18121  1  0  0  0  0
 19 51  1  0  0  0  0
 19126  1  0  0  0  0
 19127  1  0  0  0  0
 20 59  1  0  0  0  0
 20 71  1  0  0  0  0
 20128  1  0  0  0  0
 21 53  1  0  0  0  0
 21 73  2  0  0  0  0
 22 66  1  0  0  0  0
 22 71  2  0  0  0  0
 23 73  1  0  0  0  0
 23140  1  0  0  0  0
 23141  1  0  0  0  0
 24 73  1  0  0  0  0
 24142  1  0  0  0  0
 24143  1  0  0  0  0
 25 27  1  1  0  0  0
 25 35  1  0  0  0  0
 25 75  1  0  0  0  0
 26 30  1  1  0  0  0
 26 34  1  0  0  0  0
 26 76  1  0  0  0  0
 27 33  1  0  0  0  0
 27 77  1  0  0  0  0
 27 78  1  0  0  0  0
 28 29  1  0  0  0  0
 28 51  1  6  0  0  0
 28 79  1  0  0  0  0
 29 31  1  0  0  0  0
 29 80  1  0  0  0  0
 29 81  1  0  0  0  0
 30 39  1  0  0  0  0
 30 82  1  0  0  0  0
 30 83  1  0  0  0  0
 31 36  1  0  0  0  0
 31 84  1  0  0  0  0
 31 85  1  0  0  0  0
 32 40  1  0  0  0  0
 32 42  1  6  0  0  0
 32 87  1  0  0  0  0
 33 41  1  0  0  0  0
 33 47  2  0  0  0  0
 36 43  1  0  0  0  0
 36 88  1  0  0  0  0
 36 89  1  0  0  0  0
 37 45  1  0  0  0  0
 37 46  1  1  0  0  0
 37 92  1  0  0  0  0
 38 44  1  0  0  0  0
 38 50  1  0  0  0  0
 38 93  1  0  0  0  0
 39 53  1  0  0  0  0
 39 94  1  0  0  0  0
 39 95  1  0  0  0  0
 41 48  1  0  0  0  0
 41 58  2  0  0  0  0
 42 56  1  0  0  0  0
 42 96  1  0  0  0  0
 42 97  1  0  0  0  0
 43 98  1  0  0  0  0
 43 99  1  0  0  0  0
 44 54  1  0  0  0  0
 44101  1  0  0  0  0
 44102  1  0  0  0  0
 46 59  1  0  0  0  0
 46103  1  0  0  0  0
 46104  1  0  0  0  0
 47105  1  0  0  0  0
 48 60  2  0  0  0  0
 49 52  1  0  0  0  0
 49 55  1  0  0  0  0
 49106  1  0  0  0  0
 52 57  1  0  0  0  0
 52108  1  0  0  0  0
 52109  1  0  0  0  0
 53112  1  0  0  0  0
 53113  1  0  0  0  0
 56 64  2  0  0  0  0
 56 65  1  0  0  0  0
 57 61  1  0  0  0  0
 57115  1  0  0  0  0
 57116  1  0  0  0  0
 58 62  1  0  0  0  0
 58117  1  0  0  0  0
 59 66  2  0  0  0  0
 60 63  1  0  0  0  0
 60118  1  0  0  0  0
 61 67  1  0  0  0  0
 61119  1  0  0  0  0
 61120  1  0  0  0  0
 62 63  2  0  0  0  0
 62122  1  0  0  0  0
 63123  1  0  0  0  0
 64 69  1  0  0  0  0
 64124  1  0  0  0  0
 65 70  2  0  0  0  0
 65125  1  0  0  0  0
 66129  1  0  0  0  0
 67130  1  0  0  0  0
 67131  1  0  0  0  0
 67132  1  0  0  0  0
 68 74  1  0  0  0  0
 69 72  2  0  0  0  0
 69133  1  0  0  0  0
 70 72  1  0  0  0  0
 70134  1  0  0  0  0
 71135  1  0  0  0  0
 72136  1  0  0  0  0
 74137  1  0  0  0  0
 74138  1  0  0  0  0
 74139  1  0  0  0  0
M  END
> <PUBCHEM_COMPOUND_CID>
92432

> <PUBCHEM_COMPOUND_CANONICALIZED>
1

> <PUBCHEM_CACTVS_COMPLEXITY>
1950

> <PUBCHEM_CACTVS_HBOND_ACCEPTOR>
11

> <PUBCHEM_CACTVS_HBOND_DONOR>
13

> <PUBCHEM_CACTVS_ROTATABLE_BOND>
17

> <PUBCHEM_CACTVS_SUBSKEYS>
AAADcfB//AAAAAAAAAAAAAAAAAAAAWLAAAAwYAAAAAAAAFgB/AAAHgAQAAAADCjBngQ/0PbJkACoAzV3dACCgC2xEqAJ2aG4dJiIaPrA2bGUIAholgLIyCcdicCOgAAAAAACAAAAAAAAAAQAAAAAAAAAAA==

> <PUBCHEM_IUPAC_OPENEYE_NAME>
(3S,6S,9R,12S,15S,23S)-15-[[(2S)-2-acetamidohexanoyl]amino]-9-benzyl-6-(3-guanidinopropyl)-12-(1H-imidazol-5-ylmethyl)-3-(1H-indol-3-ylmethyl)-2,5,8,11,14,17-hexaoxo-1,4,7,10,13,18-hexazacyclotricosane-23-carboxamide

> <PUBCHEM_IUPAC_CAS_NAME>
(3S,6S,9R,12S,15S,23S)-15-[[(2S)-2-acetamido-1-oxohexyl]amino]-6-[3-(diaminomethylideneamino)propyl]-12-(1H-imidazol-5-ylmethyl)-3-(1H-indol-3-ylmethyl)-2,5,8,11,14,17-hexaoxo-9-(phenylmethyl)-1,4,7,10,13,18-hexazacyclotricosane-23-carboxamide

> <PUBCHEM_IUPAC_NAME_MARKUP>
(3<I>S</I>,6<I>S</I>,9<I>R</I>,12<I>S</I>,15<I>S</I>,23<I>S</I>)-15-[[(2<I>S</I>)-2-acetamidohexanoyl]amino]-9-benzyl-6-[3-(diaminomethylideneamino)propyl]-12-(1<I>H</I>-imidazol-5-ylmethyl)-3-(1<I>H</I>-indol-3-ylmethyl)-2,5,8,11,14,17-hexaoxo-1,4,7,10,13,18-hexazacyclotricosane-23-carboxamide

> <PUBCHEM_IUPAC_NAME>
(3S,6S,9R,12S,15S,23S)-15-[[(2S)-2-acetamidohexanoyl]amino]-9-benzyl-6-[3-(diaminomethylideneamino)propyl]-12-(1H-imidazol-5-ylmethyl)-3-(1H-indol-3-ylmethyl)-2,5,8,11,14,17-hexaoxo-1,4,7,10,13,18-hexazacyclotricosane-23-carboxamide

> <PUBCHEM_IUPAC_SYSTEMATIC_NAME>
(3S,6S,9R,12S,15S,23S)-15-[[(2S)-2-acetamidohexanoyl]amino]-6-[3-[bis(azanyl)methylideneamino]propyl]-12-(1H-imidazol-5-ylmethyl)-3-(1H-indol-3-ylmethyl)-2,5,8,11,14,17-hexakis(oxidanylidene)-9-(phenylmethyl)-1,4,7,10,13,18-hexazacyclotricosane-23-carboxamide

> <PUBCHEM_IUPAC_TRADITIONAL_NAME>
(3S,6S,9R,12S,15S,23S)-15-[[(2S)-2-acetamidohexanoyl]amino]-9-benzyl-6-(3-guanidinopropyl)-12-(1H-imidazol-5-ylmethyl)-3-(1H-indol-3-ylmethyl)-2,5,8,11,14,17-hexaketo-1,4,7,10,13,18-hexazacyclotricosane-23-carboxamide

> <PUBCHEM_IUPAC_INCHI>
InChI=1S/C50H69N15O9/c1-3-4-16-36(59-29(2)66)44(69)65-41-25-42(67)55-20-11-10-18-35(43(51)68)60-47(72)39(23-31-26-57-34-17-9-8-15-33(31)34)63-45(70)37(19-12-21-56-50(52)53)61-46(71)38(22-30-13-6-5-7-14-30)62-48(73)40(64-49(41)74)24-32-27-54-28-58-32/h5-9,13-15,17,26-28,35-41,57H,3-4,10-12,16,18-25H2,1-2H3,(H2,51,68)(H,54,58)(H,55,67)(H,59,66)(H,60,72)(H,61,71)(H,62,73)(H,63,70)(H,64,74)(H,65,69)(H4,52,53,56)/t35-,36-,37-,38+,39-,40-,41-/m0/s1

> <PUBCHEM_IUPAC_INCHIKEY>
JDKLPDJLXHXHNV-MFVUMRCOSA-N

> <PUBCHEM_XLOGP3_AA>
0

> <PUBCHEM_EXACT_MASS>
1023.54026884

> <PUBCHEM_MOLECULAR_FORMULA>
C50H69N15O9

> <PUBCHEM_MOLECULAR_WEIGHT>
1024.2

> <PUBCHEM_SMILES>
CCCC[C@@H](C(=O)N[C@H]1CC(=O)NCCCC[C@H](NC(=O)[C@@H](NC(=O)[C@@H](NC(=O)[C@H](NC(=O)[C@@H](NC1=O)CC2=CN=CN2)CC3=CC=CC=C3)CCCN=C(N)N)CC4=CNC5=CC=CC=C54)C(=O)N)NC(=O)C

> <PUBCHEM_CONNECTIVITY_SMILES>
CCCCC(C(=O)NC1CC(=O)NCCCCC(NC(=O)C(NC(=O)C(NC(=O)C(NC(=O)C(NC1=O)CC2=CN=CN2)CC3=CC=CC=C3)CCCN=C(N)N)CC4=CNC5=CC=CC=C54)C(=O)N)NC(=O)C

> <PUBCHEM_CACTVS_TPSA>
385

> <PUBCHEM_MONOISOTOPIC_WEIGHT>
1023.54026884

> <PUBCHEM_TOTAL_CHARGE>
0

> <PUBCHEM_HEAVY_ATOM_COUNT>
74

> <PUBCHEM_ATOM_DEF_STEREO_COUNT>
7

> <PUBCHEM_ATOM_UDEF_STEREO_COUNT>
0

> <PUBCHEM_BOND_DEF_STEREO_COUNT>
0

> <PUBCHEM_BOND_UDEF_STEREO_COUNT>
0

> <PUBCHEM_ISOTOPIC_ATOM_COUNT>
0

> <PUBCHEM_COMPONENT_COUNT>
1

> <PUBCHEM_CACTVS_TAUTO_COUNT>
-1

> <PUBCHEM_COORDINATE_TYPE>
1
5
255

> <PUBCHEM_BONDANNOTATIONS>
38  15  6
16  47  8
16  48  8
49  18  5
20  59  8
20  71  8
22  66  8
22  71  8
25  27  5
26  30  5
28  51  6
32  42  6
33  41  8
33  47  8
37  46  5
41  48  8
41  58  8
48  60  8
56  64  8
56  65  8
58  62  8
59  66  8
60  63  8
62  63  8
64  69  8
65  70  8
69  72  8
70  72  8

$$$$
